file 171829725 1617053776                                       
version 2
run General-0-20210330-06:31:30-7372
attr configname General
attr datetime 20210330-06:31:30
attr experiment General
attr inifile omnetpp.ini
attr iterationvars ""
attr iterationvarsf ""
attr measurement ""
attr network CANHSR_SIM_SIMPLE
attr processid 7372
attr repetition 0
attr replication #0
attr resultdir results
attr runnumber 0
attr seedset 0

vector 0 CANHSR_SIM_SIMPLE.caNshell2.sink "" ETV
0	429 837544 95 1504478 1.055 30623.055 32768 0 32767 536854528 11727587164160
0	837973 884736 1504524 3008842 30624.055 61249.055 32768 32768 65535 1610596352 82095257600000
0	1722709 884736 3008888 4513153 61250.055 91876.055 32768 65536 98303 2684338176 2.228316722135e+014
0	2607445 939882 4513199 6017355 91877.055 122498.055 32768 98304 131071 3758080000 4.3393683100467e+014
0	3547327 950272 6017401 7521735 122499.055 153121.055 32768 131072 163839 4831821824 7.154107339735e+014
0	4497599 950272 7521781 9026060 153122.055 183747.055 32768 163840 196607 5905563648 1.06725338112e+015
0	5447871 961823 9026106 10530266 183748.055 214373.055 32768 196608 229375 6979305472 1.4894647724442e+015
0	6409694 983040 10530312 12034816 214374.055 244995.055 32768 229376 262143 8053047296 1.982044907946e+015
0	7392734 983040 12034862 13539072 244996.055 275618.055 32768 262144 294911 9126789120 2.5449937876255e+015
0	8375774 983040 13539118 15043414 275619.055 306244.055 32768 294912 327679 10200530944 3.1783114114826e+015
0	9358814 983040 15043460 16547952 306245.055 336871.055 32768 327680 360447 11274272768 3.8819977795174e+015
0	10341854 983040 16547998 18052129 336872.055 367493.055 32768 360448 393215 12348014592 4.6560528917299e+015
0	11324894 983040 18052175 19556473 367494.055 398116.055 32768 393216 425983 13421756416 5.5004767481201e+015
0	12307934 983040 19556519 21060820 398117.055 428742.055 32768 425984 458751 14495498240 6.4152693486879e+015
0	13290974 983040 21060866 22565081 428743.055 459368.055 32768 458752 491519 15569240064 7.4004306934333e+015
0	14274014 983040 22565127 24069332 459369.055 489993.055 32768 491520 524287 16642981888 8.4559607823565e+015
0	15257054 983040 24069333 25573397 489993.055 520614.055 32768 524288 557055 17716723712 9.5818596154564e+015
0	16240094 983040 25573443 27077795 520615.055 551239.055 32768 557056 589823 18790465536 1.0778127192733e+016
0	17223134 983040 27077841 28582035 551240.055 581865.055 32768 589824 622591 19864207360 1.2044763514188e+016
0	18206174 983040 28582081 30086340 581866.055 612490.055 32768 622592 655359 20937949184 1.338176857982e+016
0	19189214 983040 30086386 31590664 612491.055 643112.055 32768 655360 688127 22011691008 1.4789142389631e+016
0	20172254 983040 31590710 33095069 643113.055 673737.055 32768 688128 720895 23085432832 1.6266884943619e+016
0	21155294 983040 33095115 34599436 673738.055 704363.055 32768 720896 753663 24159174656 1.7814996241785e+016
0	22138334 983040 34599482 36103804 704364.055 734988.055 32768 753664 786431 25232916480 1.9433476284129e+016
0	23121374 983040 36103850 37607998 734989.055 765610.055 32768 786432 819199 26306658304 2.112232507065e+016
0	24104414 983040 37607999 39112171 765610.055 796234.055 32768 819200 851967 27380400128 2.288154260135e+016
0	25087454 983040 39112217 40616594 796235.055 826860.055 32768 851968 884735 28454141952 2.4711128876227e+016
0	26070494 983040 40616640 42120994 826861.055 857485.055 32768 884736 917503 29527883776 2.6611083895281e+016
0	27053534 983040 42121040 43625324 857486.055 888107.055 32768 917504 950271 30601625600 2.8581407658514e+016
0	28036574 983040 43625370 45129441 888108.055 918731.055 32768 950272 983039 31675367424 3.0622100165924e+016
0	29019614 998848 45129487 46633845 918732.055 949358.055 32768 983040 1015807 32749109248 3.2733161417511e+016
0	30018462 1015808 46633891 48137989 949359.055 979983.055 32768 1015808 1048575 33822851072 3.4914591413277e+016
0	31034270 1027157 48138035 49642242 979984.055 1010605.055 32768 1048576 1081343 34896592896 3.7166390153219e+016
0	32061427 1048576 49642288 51146493 1010606.055 1041229.055 32768 1081344 1114111 35970334720 3.9488557637338e+016
0	33110003 1048576 51146539 52650749 1041230.055 1071855.055 32768 1114112 1146879 37044076544 4.1881093865635e+016
0	34158579 1048576 52650795 54154974 1071856.055 1102480.055 32768 1146880 1179647 38117818368 4.434399883811e+016
0	35207155 1048576 54155020 55659294 1102481.055 1133102.055 32768 1179648 1212415 39191560192 4.6877272554762e+016
0	36255731 1048576 55659340 57163540 1133103.055 1163726.055 32768 1212416 1245183 40265302016 4.9480915015592e+016
0	37304307 1048576 57163586 58667920 1163727.055 1194352.055 32768 1245184 1277951 41339043840 5.21549262206e+016
0	38352883 1048576 58667966 60172312 1194353.055 1224978.055 32768 1277952 1310719 42412785664 5.4899306169786e+016
0	39401459 1048576 60172402 61676609 1224979.055 1255600.055 32768 1310720 1343487 43486527488 5.771405486315e+016
0	40450035 1048576 61676699 63180977 1255601.055 1286223.055 32768 1343488 1376255 44560269312 6.0599172300691e+016
0	41498611 1048576 63181023 64685279 1286224.055 1316849.055 32768 1376256 1409023 45634011136 6.355465848241e+016
0	42547187 1048576 64685325 66189377 1316850.055 1347476.055 32768 1409024 1441791 46707752960 6.6580513408307e+016
0	43595763 1048576 66189423 67693708 1347477.055 1378098.055 32768 1441792 1474559 47781494784 6.9676737078381e+016
0	44644339 1048576 67693754 69197974 1378099.055 1408721.055 32768 1474560 1507327 48855236608 7.2843329492634e+016
0	45692915 1048576 69198020 70702417 1408722.055 1439347.055 32768 1507328 1540095 49928978432 7.6080290651067e+016
0	46741491 1048576 70702463 72206655 1439348.055 1469973.055 32768 1540096 1572863 51002720256 7.9387620553677e+016
0	47790067 1048576 72206701 73710943 1469974.055 1500595.055 32768 1572864 1605631 52076462080 8.2765319200465e+016
0	48838643 1048576 73710989 75215107 1500596.055 1531218.055 32768 1605632 1638399 53150203904 8.621338659143e+016
0	49887219 1048576 75215153 76719754 1531219.055 1561844.055 32768 1638400 1671167 54223945728 8.9731822726573e+016
0	50935795 1048576 76719800 78223949 1561845.055 1592470.055 32768 1671168 1703935 55297687552 9.3320627605894e+016
0	51984371 1048576 78223995 79728391 1592471.055 1623093.055 32768 1703936 1736703 56371429376 9.6979801229392e+016
0	53032947 1048576 79728392 81232742 1623093.055 1653716.055 32768 1736704 1769471 57445171200 1.0070934359707e+017
0	54081523 1048576 81232743 82736997 1653716.055 1684341.055 32768 1769472 1802239 58518913024 1.0450925470892e+017
0	55130099 1048576 82737043 84241246 1684342.055 1714967.055 32768 1802240 1835007 59592654848 1.0837953456495e+017
0	56178675 1048576 84241292 85745592 1714968.055 1745592.055 32768 1835008 1867775 60666396672 1.1232018316516e+017
0	57227251 1048576 85745770 87249795 1745593.055 1776213.055 32768 1867776 1900543 61740138496 1.1633120050955e+017
0	58275827 1048576 87249841 88753925 1776214.055 1806838.055 32768 1900544 1933311 62813880320 1.2041258659811e+017
0	59324403 1048576 88753971 90258350 1806839.055 1837464.055 32768 1933312 1966079 63887622144 1.2456434143085e+017
0	60372979 1048576 90258396 91762642 1837465.055 1868089.055 32768 1966080 1998847 64961363968 1.2878646500777e+017
0	61421555 1048576 91762688 93267123 1868090.055 1898710.055 32768 1998848 2031615 66035105792 1.3307895732887e+017
0	62470131 1048576 93267169 94771494 1898711.055 1929335.055 32768 2031616 2064383 67108847616 1.3744181839414e+017
0	63518707 1048576 94771540 96275919 1929336.055 1959961.055 32768 2064384 2097151 68182589440 1.4187504820359e+017
0	64567283 1048576 96275965 97780409 1959962.055 1990586.055 32768 2097152 2129919 69256331264 1.4637864675722e+017
0	65615859 1048576 97780455 99284786 1990587.055 2021208.055 32768 2129920 2162687 70330073088 1.5095261405503e+017
0	66664435 1065765 99284832 100789046 2021209.055 2051832.055 32768 2162688 2195455 71403814912 1.5559695009701e+017
0	67730200 1081344 100789092 102293455 2051833.055 2082458.055 32768 2195456 2228223 72477556736 1.6031165488317e+017
0	68811544 1081344 102293501 103797828 2082459.055 2113083.055 32768 2228224 2260991 73551298560 1.6509672841351e+017
0	69892888 1081344 103797874 105302098 2113084.055 2143705.055 32768 2260992 2293759 74625040384 1.6995217068802e+017
0	70974232 1081344 105302144 106806300 2143706.055 2174329.055 32768 2293760 2326527 75698782208 1.7487798170672e+017
0	72055576 1081344 106806346 108310645 2174330.055 2204955.055 32768 2326528 2359295 76772524032 1.7987416146959e+017
0	73136920 1081344 108310691 109815069 2204956.055 2235580.055 32768 2359296 2392063 77846265856 1.8494070997664e+017
0	74218264 1081344 109815115 111319515 2235581.055 2266202.055 32768 2392064 2424831 78920007680 1.9007762722786e+017
0	75299608 1081344 111319561 112823874 2266203.055 2296826.055 32768 2424832 2457599 79993749504 1.9528491322327e+017
0	76380952 1081344 112823920 114328191 2296827.055 2327452.055 32768 2457600 2490367 81067491328 2.0056256796285e+017
0	77462296 1081344 114328237 115832502 2327453.055 2358078.055 32768 2490368 2523135 82141233152 2.0591059144661e+017
0	78543640 1081344 115832592 117336964 2358079.055 2388700.055 32768 2523136 2555903 83214974976 2.1132898367455e+017
0	79624984 1081344 117337054 118841262 2388701.055 2419323.055 32768 2555904 2588671 84288716800 2.1681774464666e+017
0	80706328 1081344 118841308 120345605 2419324.055 2449949.055 32768 2588672 2621439 85362458624 2.2237687436296e+017
0	81787672 1081344 120345651 121849909 2449950.055 2480575.055 32768 2621440 2654207 86436200448 2.2800637282343e+017
0	82869016 1081344 121849955 123354373 2480576.055 2511197.055 32768 2654208 2686975 87509942272 2.3370624002808e+017
0	83950360 1081344 123354419 124858662 2511198.055 2541820.055 32768 2686976 2719743 88583684096 2.394764759769e+017
0	85031704 1081344 124858708 126363056 2541821.055 2572446.055 32768 2719744 2752511 89657425920 2.4531708066991e+017
0	86113048 1081344 126363102 127867442 2572447.055 2603072.055 32768 2752512 2785279 90731167744 2.5122805410709e+017
0	87194392 1081344 127867488 129371862 2603073.055 2633694.055 32768 2785280 2818047 91804909568 2.5720939628845e+017
0	88275736 1081344 129371908 130876088 2633695.055 2664318.055 32768 2818048 2850815 92878651392 2.6326110721398e+017
0	89357080 1081344 130876134 132380304 2664319.055 2694944.055 32768 2850816 2883583 93952393216 2.693831868837e+017
0	90438424 1081344 132380350 133884529 2694945.055 2725570.055 32768 2883584 2916351 95026135040 2.7557563529759e+017
0	91519768 1081344 133884575 135388656 2725571.055 2756193.055 32768 2916352 2949119 96099876864 2.8183845245566e+017
0	92601112 1081344 135388702 136892681 2756194.055 2786816.055 32768 2949120 2981887 97173618688 2.8817163835791e+017
0	93682456 1081344 136892727 138397192 2786817.055 2817442.055 32768 2981888 3014655 98247360512 2.9457519300433e+017
0	94763800 1081344 138397238 139901467 2817443.055 2848068.055 32768 3014656 3047423 99321102336 3.0104911639494e+017
0	95845144 1081344 139901513 141405890 2848069.055 2878693.055 32768 3047424 3080191 100394844160 3.0759340852972e+017
0	96926488 1081344 141405891 142909986 2878693.055 2909314.055 32768 3080192 3112959 101468585984 3.1420806940868e+017
0	98007832 1081344 142910032 144414212 2909315.055 2939939.055 32768 3112960 3145727 102542327808 3.2089309903182e+017
0	99089176 1081344 144414258 145918403 2939940.055 2970565.055 32768 3145728 3178495 103616069632 3.2764849739914e+017
0	100170520 1081344 145918449 147422451 2970566.055 3001190.055 32768 3178496 3211263 104689811456 3.3447426451063e+017
0	101251864 1081344 147422497 148926749 3001191.055 3031811.055 32768 3211264 3244031 105763553280 3.413704003663e+017
0	102333208 1081344 148926795 150430987 3031812.055 3062436.055 32768 3244032 3276799 106837295104 3.4833690496615e+017
0	103414552 1081344 150431033 151935296 3062437.055 3093062.055 32768 3276800 3309567 107911036928 3.5537377831018e+017
0	104495896 1081344 151935342 153439714 3093063.055 3123687.055 32768 3309568 3342335 108984778752 3.6248102039838e+017
0	105577240 1081344 153439760 154944149 3123688.055 3154309.055 32768 3342336 3375103 110058520576 3.6965863123076e+017
0	106658584 1081344 154944239 156448470 3154310.055 3184933.055 32768 3375104 3407871 111132262400 3.7690661080732e+017
0	107739928 1081344 156448516 157952804 3184934.055 3215559.055 32768 3407872 3440639 112206004224 3.8422495912806e+017
0	108821272 1081344 157952850 159457028 3215560.055 3246184.055 32768 3440640 3473407 113279746048 3.9161367619297e+017
0	109902616 1081344 159457074 160961316 3246185.055 3276806.055 32768 3473408 3506175 114353487872 3.9907276200207e+017
0	110983960 1081344 160961362 162465707 3276807.055 3307430.055 32768 3506176 3538943 115427229696 4.0660221655534e+017
0	112065304 1081344 162465753 163969932 3307431.055 3338056.055 32768 3538944 3571711 116500971520 4.1420203985278e+017
0	113146648 1081344 163969978 165474175 3338057.055 3368681.055 32768 3571712 3604479 117574713344 4.2187223189441e+017
0	114227992 1081344 165474221 166978583 3368682.055 3399303.055 32768 3604480 3637247 118648455168 4.2961279268021e+017
0	115309336 1081344 166978629 168482880 3399304.055 3429927.055 32768 3637248 3670015 119722196992 4.3742372221019e+017
0	116390680 1081344 168482926 169987169 3429928.055 3460553.055 32768 3670016 3702783 120795938816 4.4530502048435e+017
0	117472024 1081344 169987215 171491416 3460554.055 3491179.055 32768 3702784 3735551 121869680640 4.5325668750268e+017
0	118553368 1081344 171491417 172995693 3491179.055 3521801.055 32768 3735552 3768319 122943422464 4.612787232652e+017
0	119634712 1081344 172995694 174500092 3521801.055 3552424.055 32768 3768320 3801087 124017164288 4.6937112777189e+017
0	120716056 1081344 174500138 176004391 3552425.055 3583050.055 32768 3801088 3833855 125090906112 4.7753390102276e+017
0	121797400 1081344 176004437 177508751 3583051.055 3613676.055 32768 3833856 3866623 126164647936 4.857670430178e+017
0	122878744 1081344 177508797 179013045 3613677.055 3644298.055 32768 3866624 3899391 127238389760 4.9407055375703e+017
0	123960088 1081344 179013091 180517368 3644299.055 3674921.055 32768 3899392 3932159 128312131584 5.0244443324043e+017
0	125041432 1081344 180517414 182021921 3674922.055 3705549.055 32768 3932160 3964927 129385873408 5.1088868146801e+017
0	126122776 1081344 182021967 183526199 3705550.055 3736175.055 32768 3964928 3997695 130459615232 5.1940329843976e+017
0	127204120 1081344 183526245 185030511 3736176.055 3766797.055 32768 3997696 4030463 131533357056 5.279882841557e+017
0	128285464 1081344 185030557 186534922 3766798.055 3797420.055 32768 4030464 4063231 132607098880 5.3664363861581e+017
0	129366808 1081344 186534968 188039213 3797421.055 3828047.055 32768 4063232 4095999 133680840704 5.453693618201e+017
0	130448152 1081344 188039259 189543592 3828048.055 3858673.055 32768 4096000 4128767 134754582528 5.5416545376856e+017
0	131529496 1081344 189543638 191047848 3858674.055 3889296.055 32768 4128768 4161535 135828324352 5.6303191446121e+017
0	132610840 1081344 191047894 192552216 3889297.055 3919919.055 32768 4161536 4194303 136902066176 5.7196874389803e+017
0	133692184 1081344 192552262 194056494 3919920.055 3950545.055 32768 4194304 4227071 137975808000 5.8097594207903e+017
0	134773528 1081344 194056540 195561002 3950546.055 3981171.055 32768 4227072 4259839 139049549824 5.9005350900421e+017
0	135854872 1081344 195561048 197065319 3981172.055 4011793.055 32768 4259840 4292607 140123291648 5.9920144467356e+017
0	136936216 1081344 197065365 198569516 4011794.055 4042416.055 32768 4292608 4325375 141197033472 6.084197490871e+017
0	138017560 1081344 198569562 200073829 4042417.055 4073042.055 32768 4325376 4358143 142270775296 6.1770842224481e+017
0	139098904 1081344 200073875 201578112 4073043.055 4103668.055 32768 4358144 4390911 143344517120 6.270674641467e+017
0	140180248 1081344 201578158 203082516 4103669.055 4134293.055 32768 4390912 4423679 144418258944 6.3649687479276e+017
0	141261592 1081344 203082517 204586720 4134293.055 4164915.055 32768 4423680 4456447 145492000768 6.4599665418301e+017
0	142342936 1081344 204586810 206091134 4164916.055 4195540.055 32768 4456448 4489215 146565742592 6.5556680231743e+017
0	143424280 1081344 206091180 207595423 4195541.055 4226166.055 32768 4489216 4521983 147639484416 6.6520731919603e+017
0	144505624 1081344 207595469 209099562 4226167.055 4256791.055 32768 4521984 4554751 148713226240 6.749182048188e+017
0	145586968 1081344 209099608 210603903 4256792.055 4287412.055 32768 4554752 4587519 149786968064 6.8469945918576e+017
0	146668312 1081344 210603949 212108140 4287413.055 4318037.055 32768 4587520 4620287 150860709888 6.9455108229689e+017
0	147749656 1081344 212108186 213612640 4318038.055 4348663.055 32768 4620288 4653055 151934451712 7.044730741522e+017
0	148831000 1081344 213612686 215117221 4348664.055 4379288.055 32768 4653056 4685823 153008193536 7.1446543475168e+017
0	149912344 1081344 215117267 216621597 4379289.055 4409910.055 32768 4685824 4718591 154081935360 7.2452816409535e+017
0	150993688 1081344 216621598 218125695 4409910.055 4440534.055 32768 4718592 4751359 155155677184 7.3466126218319e+017
0	152075032 1081344 218125741 219630177 4440535.055 4471160.055 32768 4751360 4784127 156229419008 7.4486472901521e+017
0	153156376 1081344 219630223 221134634 4471161.055 4501785.055 32768 4784128 4816895 157303160832 7.5513856459141e+017
0	154237720 1081344 221134680 222638856 4501786.055 4532407.055 32768 4816896 4849663 158376902656 7.6548276891179e+017
0	155319064 1081344 222638902 224143247 4532408.055 4563031.055 32768 4849664 4882431 159450644480 7.7589734197634e+017
0	156400408 1081344 224143293 225647752 4563032.055 4593657.055 32768 4882432 4915199 160524386304 7.8638228378507e+017
0	157481752 1081344 225647798 227151878 4593658.055 4624282.055 32768 4915200 4947967 161598128128 7.9693759433798e+017
0	158563096 1081344 227151924 228656158 4624283.055 4654904.055 32768 4947968 4980735 162671869952 8.0756327363506e+017
0	159644440 1081344 228656204 230160527 4654905.055 4685528.055 32768 4980736 5013503 163745611776 8.1825932167633e+017
0	160725784 1081344 230160573 231664976 4685529.055 4716154.055 32768 5013504 5046271 164819353600 8.2902573846177e+017
0	161807128 1081344 231665022 233169354 4716155.055 4746779.055 32768 5046272 5079039 165893095424 8.3986252399139e+017
0	162888472 1081344 233169400 234673589 4746780.055 4777401.055 32768 5079040 5111807 166966837248 8.5076967826518e+017
0	163969816 1081344 234673635 236177886 4777402.055 4808025.055 32768 5111808 5144575 168040579072 8.6174720128316e+017
0	165051160 1081344 236177932 237682307 4808026.055 4838651.055 32768 5144576 5177343 169114320896 8.7279509304531e+017
0	166132504 1081344 237682353 239186643 4838652.055 4869277.055 32768 5177344 5210111 170188062720 8.8391335355164e+017
0	167213848 1081344 239186689 240690997 4869278.055 4899899.055 32768 5210112 5242879 171261804544 8.9510198280215e+017
0	168295192 1081344 240691043 242195258 4899900.055 4930522.055 32768 5242880 5275647 172335546368 9.0636098079683e+017
0	169376536 1081344 242195304 243699593 4930523.055 4961148.055 32768 5275648 5308415 173409288192 9.1769034753569e+017
0	170457880 1081344 243699639 245203864 4961149.055 4991774.055 32768 5308416 5341183 174483030016 9.2909008301873e+017
0	171539224 290499 245203910 245608080 4991775.055 4999999.055 8803 5341184 5349986 47057184755 2.5154823781598e+017

