version 2
run General-0-20210129-15:00:20-21144
attr configname General
attr datetime 20210129-15:00:20
attr experiment General
attr inifile omnetpp.ini
attr iterationvars ""
attr iterationvarsf ""
attr measurement ""
attr network CAN_SIM_SIMPLE
attr processid 21144
attr repetition 0
attr replication #0
attr resultdir results
attr runnumber 0
attr seedset 0

vector 0 CAN_SIM_SIMPLE.caNshell.sink "" ETV
vector 1 CAN_SIM_SIMPLE.caNshell1.sink "" ETV
vector 2 CAN_SIM_SIMPLE.caNshell3.sink "" ETV
vector 3 CAN_SIM_SIMPLE.caNshell2.sink "" ETV
vector 4 CAN_SIM_SIMPLE.caNshell4.sink "" ETV
0	19	1.095	0
0	24	1.095	0
0	36	2.095	0
0	48	3.095	0
0	60	4.095	0
0	72	5.095	0
0	84	6.095	0
0	96	7.095	0
0	108	8.095	0
0	120	9.095	0
0	138	10.095	0
0	143	10.095	0
0	155	11.095	0
0	167	12.095	0
0	179	13.095	0
0	191	14.095	0
0	203	15.095	0
0	221	16.095	0
0	226	16.095	0
0	238	17.095	0
0	250	18.095	0
0	262	19.095	0
0	274	20.095	0
0	286	21.095	0
0	298	22.095	0
0	310	23.095	0
0	322	24.095	0
0	334	25.095	0
0	346	26.095	0
0	358	27.095	0
0	370	28.095	0
0	382	29.095	0
0	394	30.095	0
0	406	31.095	0
0	418	32.095	0
0	430	33.095	0
0	442	34.095	0
0	454	35.095	0
0	466	36.095	0
0	478	37.095	0
0	490	38.095	0
0	502	39.095	0
0	514	40.095	0
0	526	41.095	0
0	538	42.095	0
0	550	43.095	0
0	562	44.095	0
0	574	45.095	0
0	586	46.095	0
0	598	47.095	0
0	610	48.095	0
0	622	49.095	0
0	634	50.095	0
0	646	51.095	0
0	658	52.095	0
0	670	53.095	0
0	682	54.095	0
0	694	55.095	0
0	706	56.095	0
0	718	57.095	0
0	730	58.095	0
0	742	59.095	0
0	754	60.095	0
0	766	61.095	0
0	778	62.095	0
0	790	63.095	0
0	802	64.095	0
0	814	65.095	0
0	826	66.095	0
0	838	67.095	0
0	850	68.095	0
0	862	69.095	0
0	874	70.095	0
0	886	71.095	0
0	898	72.095	0
0	910	73.095	0
0	922	74.095	0
0	934	75.095	0
0	946	76.095	0
0	958	77.095	0
0	970	78.095	0
0	988	79.095	0
0	993	79.095	0
0	1005	80.095	0
0	1017	81.095	0
0	1029	82.095	0
0	1041	83.095	0
0	1053	84.095	0
0	1065	85.095	0
0	1077	86.095	0
0	1089	87.095	0
0	1101	88.095	0
0	1113	89.095	0
0	1125	90.095	0
0	1137	91.095	0
0	1149	92.095	0
0	1179	93.095	0
0	1184	93.095	0
0	1189	93.095	0
0	1194	93.095	0
0	1206	94.095	0
0	1218	95.095	0
0	1230	96.095	0
0	1242	97.095	0
0	1254	98.095	0
0	1266	99.095	0
0	1278	100.095	0
0	1296	101.095	0
0	1301	101.095	0
0	1313	102.095	0
0	1325	103.095	0
0	1337	104.095	0
0	1349	105.095	0
0	1361	106.095	0
0	1373	107.095	0
0	1385	108.095	0
0	1397	109.095	0
0	1415	110.095	0
0	1420	110.095	0
0	1432	111.095	0
0	1444	112.095	0
0	1456	113.095	0
0	1468	114.095	0
0	1480	115.095	0
0	1498	116.095	0
0	1503	116.095	0
0	1515	117.095	0
0	1527	118.095	0
0	1539	119.095	0
0	1551	120.095	0
0	1563	121.095	0
0	1575	122.095	0
0	1587	123.095	0
0	1599	124.095	0
0	1611	125.095	0
0	1623	126.095	0
0	1635	127.095	0
0	1647	128.095	0
0	1659	129.095	0
0	1671	130.095	0
0	1683	131.095	0
0	1695	132.095	0
0	1707	133.095	0
0	1719	134.095	0
0	1731	135.095	0
0	1743	136.095	0
0	1755	137.095	0
0	1767	138.095	0
0	1779	139.095	0
0	1791	140.095	0
0	1803	141.095	0
0	1815	142.095	0
0	1827	143.095	0
0	1839	144.095	0
0	1851	145.095	0
0	1863	146.095	0
0	1875	147.095	0
0	1887	148.095	0
0	1899	149.095	0
0	1911	150.095	0
0	1923	151.095	0
0	1935	152.095	0
0	1947	153.095	0
0	1959	154.095	0
0	1971	155.095	0
0	1983	156.095	0
0	1995	157.095	0
0	2007	158.095	0
0	2019	159.095	0
0	2031	160.095	0
0	2043	161.095	0
0	2055	162.095	0
0	2067	163.095	0
0	2079	164.095	0
0	2091	165.095	0
0	2103	166.095	0
0	2115	167.095	0
0	2127	168.095	0
0	2139	169.095	0
0	2151	170.095	0
0	2163	171.095	0
0	2175	172.095	0
0	2187	173.095	0
0	2199	174.095	0
0	2211	175.095	0
0	2223	176.095	0
0	2235	177.095	0
0	2247	178.095	0
0	2265	179.095	0
0	2270	179.095	0
0	2282	180.095	0
0	2294	181.095	0
0	2306	182.095	0
0	2318	183.095	0
0	2330	184.095	0
0	2342	185.095	0
0	2354	186.095	0
0	2366	187.095	0
0	2378	188.095	0
0	2390	189.095	0
0	2402	190.095	0
0	2414	191.095	0
0	2426	192.095	0
0	2456	193.095	0
0	2461	193.095	0
0	2466	193.095	0
0	2471	193.095	0
0	2483	194.095	0
0	2495	195.095	0
0	2507	196.095	0
0	2519	197.095	0
0	2531	198.095	0
0	2543	199.095	0
0	2555	200.095	0
0	2573	201.095	0
0	2578	201.095	0
0	2590	202.095	0
0	2602	203.095	0
0	2614	204.095	0
0	2626	205.095	0
0	2638	206.095	0
0	2650	207.095	0
0	2662	208.095	0
0	2674	209.095	0
0	2692	210.095	0
0	2697	210.095	0
0	2709	211.095	0
0	2721	212.095	0
0	2733	213.095	0
0	2745	214.095	0
0	2757	215.095	0
0	2775	216.095	0
0	2780	216.095	0
0	2792	217.095	0
0	2804	218.095	0
0	2816	219.095	0
0	2828	220.095	0
0	2840	221.095	0
0	2852	222.095	0
0	2864	223.095	0
0	2876	224.095	0
0	2888	225.095	0
0	2900	226.095	0
0	2912	227.095	0
0	2924	228.095	0
0	2936	229.095	0
0	2948	230.095	0
0	2960	231.095	0
0	2972	232.095	0
0	2984	233.095	0
0	2996	234.095	0
0	3008	235.095	0
0	3020	236.095	0
0	3032	237.095	0
0	3044	238.095	0
0	3056	239.095	0
0	3068	240.095	0
0	3080	241.095	0
0	3092	242.095	0
0	3104	243.095	0
0	3116	244.095	0
0	3128	245.095	0
0	3140	246.095	0
0	3152	247.095	0
0	3164	248.095	0
0	3176	249.095	0
0	3188	250.095	0
0	3200	251.095	0
0	3212	252.095	0
0	3224	253.095	0
0	3236	254.095	0
0	3248	255.095	0
0	3260	256.095	0
0	3272	257.095	0
0	3284	258.095	0
0	3296	259.095	0
0	3308	260.095	0
0	3320	261.095	0
0	3332	262.095	0
0	3344	263.095	0
0	3356	264.095	0
0	3368	265.095	0
0	3380	266.095	0
0	3392	267.095	0
0	3404	268.095	0
0	3416	269.095	0
0	3428	270.095	0
0	3440	271.095	0
0	3452	272.095	0
0	3464	273.095	0
0	3476	274.095	0
0	3488	275.095	0
0	3500	276.095	0
0	3512	277.095	0
0	3524	278.095	0
0	3542	279.095	0
0	3547	279.095	0
0	3559	280.095	0
0	3571	281.095	0
0	3583	282.095	0
0	3595	283.095	0
0	3607	284.095	0
0	3619	285.095	0
0	3631	286.095	0
0	3643	287.095	0
0	3655	288.095	0
0	3667	289.095	0
0	3679	290.095	0
0	3691	291.095	0
0	3703	292.095	0
0	3733	293.095	0
0	3738	293.095	0
0	3743	293.095	0
0	3748	293.095	0
0	3760	294.095	0
0	3772	295.095	0
0	3784	296.095	0
0	3796	297.095	0
0	3808	298.095	0
0	3820	299.095	0
1	20	1.095	0
1	25	1.095	0
1	37	2.095	0
1	49	3.095	0
1	61	4.095	0
1	73	5.095	0
1	85	6.095	0
1	97	7.095	0
1	109	8.095	0
1	121	9.095	0
1	139	10.095	0
1	144	10.095	0
1	156	11.095	0
1	168	12.095	0
1	180	13.095	0
1	192	14.095	0
1	204	15.095	0
1	222	16.095	0
1	227	16.095	0
1	239	17.095	0
1	251	18.095	0
1	263	19.095	0
1	275	20.095	0
1	287	21.095	0
1	299	22.095	0
1	311	23.095	0
1	323	24.095	0
1	335	25.095	0
1	347	26.095	0
1	359	27.095	0
1	371	28.095	0
1	383	29.095	0
1	395	30.095	0
1	407	31.095	0
1	419	32.095	0
1	431	33.095	0
1	443	34.095	0
1	455	35.095	0
1	467	36.095	0
1	479	37.095	0
1	491	38.095	0
1	503	39.095	0
1	515	40.095	0
1	527	41.095	0
1	539	42.095	0
1	551	43.095	0
1	563	44.095	0
1	575	45.095	0
1	587	46.095	0
1	599	47.095	0
1	611	48.095	0
1	623	49.095	0
1	635	50.095	0
1	647	51.095	0
1	659	52.095	0
1	671	53.095	0
1	683	54.095	0
1	695	55.095	0
1	707	56.095	0
1	719	57.095	0
1	731	58.095	0
1	743	59.095	0
1	755	60.095	0
1	767	61.095	0
1	779	62.095	0
1	791	63.095	0
1	803	64.095	0
1	815	65.095	0
1	827	66.095	0
1	839	67.095	0
1	851	68.095	0
1	863	69.095	0
1	875	70.095	0
1	887	71.095	0
1	899	72.095	0
1	911	73.095	0
1	923	74.095	0
1	935	75.095	0
1	947	76.095	0
1	959	77.095	0
1	971	78.095	0
1	989	79.095	0
1	994	79.095	0
1	1006	80.095	0
1	1018	81.095	0
1	1030	82.095	0
1	1042	83.095	0
1	1054	84.095	0
1	1066	85.095	0
1	1078	86.095	0
1	1090	87.095	0
1	1102	88.095	0
1	1114	89.095	0
1	1126	90.095	0
1	1138	91.095	0
1	1150	92.095	0
1	1180	93.095	0
1	1185	93.095	0
1	1190	93.095	0
1	1195	93.095	0
1	1207	94.095	0
1	1219	95.095	0
1	1231	96.095	0
1	1243	97.095	0
1	1255	98.095	0
1	1267	99.095	0
1	1279	100.095	0
1	1297	101.095	0
1	1302	101.095	0
1	1314	102.095	0
1	1326	103.095	0
1	1338	104.095	0
1	1350	105.095	0
1	1362	106.095	0
1	1374	107.095	0
1	1386	108.095	0
1	1398	109.095	0
1	1416	110.095	0
1	1421	110.095	0
1	1433	111.095	0
1	1445	112.095	0
1	1457	113.095	0
1	1469	114.095	0
1	1481	115.095	0
1	1499	116.095	0
1	1504	116.095	0
1	1516	117.095	0
1	1528	118.095	0
1	1540	119.095	0
1	1552	120.095	0
1	1564	121.095	0
1	1576	122.095	0
1	1588	123.095	0
1	1600	124.095	0
1	1612	125.095	0
1	1624	126.095	0
1	1636	127.095	0
1	1648	128.095	0
1	1660	129.095	0
1	1672	130.095	0
1	1684	131.095	0
1	1696	132.095	0
1	1708	133.095	0
1	1720	134.095	0
1	1732	135.095	0
1	1744	136.095	0
1	1756	137.095	0
1	1768	138.095	0
1	1780	139.095	0
1	1792	140.095	0
1	1804	141.095	0
1	1816	142.095	0
1	1828	143.095	0
1	1840	144.095	0
1	1852	145.095	0
1	1864	146.095	0
1	1876	147.095	0
1	1888	148.095	0
1	1900	149.095	0
1	1912	150.095	0
1	1924	151.095	0
1	1936	152.095	0
1	1948	153.095	0
1	1960	154.095	0
1	1972	155.095	0
1	1984	156.095	0
1	1996	157.095	0
1	2008	158.095	0
1	2020	159.095	0
1	2032	160.095	0
1	2044	161.095	0
1	2056	162.095	0
1	2068	163.095	0
1	2080	164.095	0
1	2092	165.095	0
1	2104	166.095	0
1	2116	167.095	0
1	2128	168.095	0
1	2140	169.095	0
1	2152	170.095	0
1	2164	171.095	0
1	2176	172.095	0
1	2188	173.095	0
1	2200	174.095	0
1	2212	175.095	0
1	2224	176.095	0
1	2236	177.095	0
1	2248	178.095	0
1	2266	179.095	0
1	2271	179.095	0
1	2283	180.095	0
1	2295	181.095	0
1	2307	182.095	0
1	2319	183.095	0
1	2331	184.095	0
1	2343	185.095	0
1	2355	186.095	0
1	2367	187.095	0
1	2379	188.095	0
1	2391	189.095	0
1	2403	190.095	0
1	2415	191.095	0
1	2427	192.095	0
1	2457	193.095	0
1	2462	193.095	0
1	2467	193.095	0
1	2472	193.095	0
1	2484	194.095	0
1	2496	195.095	0
1	2508	196.095	0
1	2520	197.095	0
1	2532	198.095	0
1	2544	199.095	0
1	2556	200.095	0
1	2574	201.095	0
1	2579	201.095	0
1	2591	202.095	0
1	2603	203.095	0
1	2615	204.095	0
1	2627	205.095	0
1	2639	206.095	0
1	2651	207.095	0
1	2663	208.095	0
1	2675	209.095	0
1	2693	210.095	0
1	2698	210.095	0
1	2710	211.095	0
1	2722	212.095	0
1	2734	213.095	0
1	2746	214.095	0
1	2758	215.095	0
1	2776	216.095	0
1	2781	216.095	0
1	2793	217.095	0
1	2805	218.095	0
1	2817	219.095	0
1	2829	220.095	0
1	2841	221.095	0
1	2853	222.095	0
1	2865	223.095	0
1	2877	224.095	0
1	2889	225.095	0
1	2901	226.095	0
1	2913	227.095	0
1	2925	228.095	0
1	2937	229.095	0
1	2949	230.095	0
1	2961	231.095	0
1	2973	232.095	0
1	2985	233.095	0
1	2997	234.095	0
1	3009	235.095	0
1	3021	236.095	0
1	3033	237.095	0
1	3045	238.095	0
1	3057	239.095	0
1	3069	240.095	0
1	3081	241.095	0
1	3093	242.095	0
1	3105	243.095	0
1	3117	244.095	0
1	3129	245.095	0
1	3141	246.095	0
1	3153	247.095	0
1	3165	248.095	0
1	3177	249.095	0
1	3189	250.095	0
1	3201	251.095	0
1	3213	252.095	0
1	3225	253.095	0
1	3237	254.095	0
1	3249	255.095	0
1	3261	256.095	0
1	3273	257.095	0
1	3285	258.095	0
1	3297	259.095	0
1	3309	260.095	0
1	3321	261.095	0
1	3333	262.095	0
1	3345	263.095	0
1	3357	264.095	0
1	3369	265.095	0
1	3381	266.095	0
1	3393	267.095	0
1	3405	268.095	0
1	3417	269.095	0
1	3429	270.095	0
1	3441	271.095	0
1	3453	272.095	0
1	3465	273.095	0
1	3477	274.095	0
1	3489	275.095	0
1	3501	276.095	0
1	3513	277.095	0
1	3525	278.095	0
1	3543	279.095	0
1	3548	279.095	0
1	3560	280.095	0
1	3572	281.095	0
1	3584	282.095	0
1	3596	283.095	0
1	3608	284.095	0
1	3620	285.095	0
1	3632	286.095	0
1	3644	287.095	0
1	3656	288.095	0
1	3668	289.095	0
1	3680	290.095	0
1	3692	291.095	0
1	3704	292.095	0
1	3734	293.095	0
1	3739	293.095	0
1	3744	293.095	0
1	3749	293.095	0
1	3761	294.095	0
1	3773	295.095	0
1	3785	296.095	0
1	3797	297.095	0
1	3809	298.095	0
1	3821	299.095	0
2	21	1.095	0
2	26	1.095	0
2	38	2.095	0
2	50	3.095	0
2	62	4.095	0
2	74	5.095	0
2	86	6.095	0
2	98	7.095	0
2	110	8.095	0
2	122	9.095	0
2	140	10.095	0
2	145	10.095	0
2	157	11.095	0
2	169	12.095	0
2	181	13.095	0
2	193	14.095	0
2	205	15.095	0
2	223	16.095	0
2	228	16.095	0
2	240	17.095	0
2	252	18.095	0
2	264	19.095	0
2	276	20.095	0
2	288	21.095	0
2	300	22.095	0
2	312	23.095	0
2	324	24.095	0
2	336	25.095	0
2	348	26.095	0
2	360	27.095	0
2	372	28.095	0
2	384	29.095	0
2	396	30.095	0
2	408	31.095	0
2	420	32.095	0
2	432	33.095	0
2	444	34.095	0
2	456	35.095	0
2	468	36.095	0
2	480	37.095	0
2	492	38.095	0
2	504	39.095	0
2	516	40.095	0
2	528	41.095	0
2	540	42.095	0
2	552	43.095	0
2	564	44.095	0
2	576	45.095	0
2	588	46.095	0
2	600	47.095	0
2	612	48.095	0
2	624	49.095	0
2	636	50.095	0
2	648	51.095	0
2	660	52.095	0
2	672	53.095	0
2	684	54.095	0
2	696	55.095	0
2	708	56.095	0
2	720	57.095	0
2	732	58.095	0
2	744	59.095	0
2	756	60.095	0
2	768	61.095	0
2	780	62.095	0
2	792	63.095	0
2	804	64.095	0
2	816	65.095	0
2	828	66.095	0
2	840	67.095	0
2	852	68.095	0
2	864	69.095	0
2	876	70.095	0
2	888	71.095	0
2	900	72.095	0
2	912	73.095	0
2	924	74.095	0
2	936	75.095	0
2	948	76.095	0
2	960	77.095	0
2	972	78.095	0
2	990	79.095	0
2	995	79.095	0
2	1007	80.095	0
2	1019	81.095	0
2	1031	82.095	0
2	1043	83.095	0
2	1055	84.095	0
2	1067	85.095	0
2	1079	86.095	0
2	1091	87.095	0
2	1103	88.095	0
2	1115	89.095	0
2	1127	90.095	0
2	1139	91.095	0
2	1151	92.095	0
2	1181	93.095	0
2	1186	93.095	0
2	1191	93.095	0
2	1196	93.095	0
2	1208	94.095	0
2	1220	95.095	0
2	1232	96.095	0
2	1244	97.095	0
2	1256	98.095	0
2	1268	99.095	0
2	1280	100.095	0
2	1298	101.095	0
2	1303	101.095	0
2	1315	102.095	0
2	1327	103.095	0
2	1339	104.095	0
2	1351	105.095	0
2	1363	106.095	0
2	1375	107.095	0
2	1387	108.095	0
2	1399	109.095	0
2	1417	110.095	0
2	1422	110.095	0
2	1434	111.095	0
2	1446	112.095	0
2	1458	113.095	0
2	1470	114.095	0
2	1482	115.095	0
2	1500	116.095	0
2	1505	116.095	0
2	1517	117.095	0
2	1529	118.095	0
2	1541	119.095	0
2	1553	120.095	0
2	1565	121.095	0
2	1577	122.095	0
2	1589	123.095	0
2	1601	124.095	0
2	1613	125.095	0
2	1625	126.095	0
2	1637	127.095	0
2	1649	128.095	0
2	1661	129.095	0
2	1673	130.095	0
2	1685	131.095	0
2	1697	132.095	0
2	1709	133.095	0
2	1721	134.095	0
2	1733	135.095	0
2	1745	136.095	0
2	1757	137.095	0
2	1769	138.095	0
2	1781	139.095	0
2	1793	140.095	0
2	1805	141.095	0
2	1817	142.095	0
2	1829	143.095	0
2	1841	144.095	0
2	1853	145.095	0
2	1865	146.095	0
2	1877	147.095	0
2	1889	148.095	0
2	1901	149.095	0
2	1913	150.095	0
2	1925	151.095	0
2	1937	152.095	0
2	1949	153.095	0
2	1961	154.095	0
2	1973	155.095	0
2	1985	156.095	0
2	1997	157.095	0
2	2009	158.095	0
2	2021	159.095	0
2	2033	160.095	0
2	2045	161.095	0
2	2057	162.095	0
2	2069	163.095	0
2	2081	164.095	0
2	2093	165.095	0
2	2105	166.095	0
2	2117	167.095	0
2	2129	168.095	0
2	2141	169.095	0
2	2153	170.095	0
2	2165	171.095	0
2	2177	172.095	0
2	2189	173.095	0
2	2201	174.095	0
2	2213	175.095	0
2	2225	176.095	0
2	2237	177.095	0
2	2249	178.095	0
2	2267	179.095	0
2	2272	179.095	0
2	2284	180.095	0
2	2296	181.095	0
2	2308	182.095	0
2	2320	183.095	0
2	2332	184.095	0
2	2344	185.095	0
2	2356	186.095	0
2	2368	187.095	0
2	2380	188.095	0
2	2392	189.095	0
2	2404	190.095	0
2	2416	191.095	0
2	2428	192.095	0
2	2458	193.095	0
2	2463	193.095	0
2	2468	193.095	0
2	2473	193.095	0
2	2485	194.095	0
2	2497	195.095	0
2	2509	196.095	0
2	2521	197.095	0
2	2533	198.095	0
2	2545	199.095	0
2	2557	200.095	0
2	2575	201.095	0
2	2580	201.095	0
2	2592	202.095	0
2	2604	203.095	0
2	2616	204.095	0
2	2628	205.095	0
2	2640	206.095	0
2	2652	207.095	0
2	2664	208.095	0
2	2676	209.095	0
2	2694	210.095	0
2	2699	210.095	0
2	2711	211.095	0
2	2723	212.095	0
2	2735	213.095	0
2	2747	214.095	0
2	2759	215.095	0
2	2777	216.095	0
2	2782	216.095	0
2	2794	217.095	0
2	2806	218.095	0
2	2818	219.095	0
2	2830	220.095	0
2	2842	221.095	0
2	2854	222.095	0
2	2866	223.095	0
2	2878	224.095	0
2	2890	225.095	0
2	2902	226.095	0
2	2914	227.095	0
2	2926	228.095	0
2	2938	229.095	0
2	2950	230.095	0
2	2962	231.095	0
2	2974	232.095	0
2	2986	233.095	0
2	2998	234.095	0
2	3010	235.095	0
2	3022	236.095	0
2	3034	237.095	0
2	3046	238.095	0
2	3058	239.095	0
2	3070	240.095	0
2	3082	241.095	0
2	3094	242.095	0
2	3106	243.095	0
2	3118	244.095	0
2	3130	245.095	0
2	3142	246.095	0
2	3154	247.095	0
2	3166	248.095	0
2	3178	249.095	0
2	3190	250.095	0
2	3202	251.095	0
2	3214	252.095	0
2	3226	253.095	0
2	3238	254.095	0
2	3250	255.095	0
2	3262	256.095	0
2	3274	257.095	0
2	3286	258.095	0
2	3298	259.095	0
2	3310	260.095	0
2	3322	261.095	0
2	3334	262.095	0
2	3346	263.095	0
2	3358	264.095	0
2	3370	265.095	0
2	3382	266.095	0
2	3394	267.095	0
2	3406	268.095	0
2	3418	269.095	0
2	3430	270.095	0
2	3442	271.095	0
2	3454	272.095	0
2	3466	273.095	0
2	3478	274.095	0
2	3490	275.095	0
2	3502	276.095	0
2	3514	277.095	0
2	3526	278.095	0
2	3544	279.095	0
2	3549	279.095	0
2	3561	280.095	0
2	3573	281.095	0
2	3585	282.095	0
2	3597	283.095	0
2	3609	284.095	0
2	3621	285.095	0
2	3633	286.095	0
2	3645	287.095	0
2	3657	288.095	0
2	3669	289.095	0
2	3681	290.095	0
2	3693	291.095	0
2	3705	292.095	0
2	3735	293.095	0
2	3740	293.095	0
2	3745	293.095	0
2	3750	293.095	0
2	3762	294.095	0
2	3774	295.095	0
2	3786	296.095	0
2	3798	297.095	0
2	3810	298.095	0
2	3822	299.095	0
3	22	1.095	0
3	27	1.095	0
3	39	2.095	0
3	51	3.095	0
3	63	4.095	0
3	75	5.095	0
3	87	6.095	0
3	99	7.095	0
3	111	8.095	0
3	123	9.095	0
3	141	10.095	0
3	146	10.095	0
3	158	11.095	0
3	170	12.095	0
3	182	13.095	0
3	194	14.095	0
3	206	15.095	0
3	224	16.095	0
3	229	16.095	0
3	241	17.095	0
3	253	18.095	0
3	265	19.095	0
3	277	20.095	0
3	289	21.095	0
3	301	22.095	0
3	313	23.095	0
3	325	24.095	0
3	337	25.095	0
3	349	26.095	0
3	361	27.095	0
3	373	28.095	0
3	385	29.095	0
3	397	30.095	0
3	409	31.095	0
3	421	32.095	0
3	433	33.095	0
3	445	34.095	0
3	457	35.095	0
3	469	36.095	0
3	481	37.095	0
3	493	38.095	0
3	505	39.095	0
3	517	40.095	0
3	529	41.095	0
3	541	42.095	0
3	553	43.095	0
3	565	44.095	0
3	577	45.095	0
3	589	46.095	0
3	601	47.095	0
3	613	48.095	0
3	625	49.095	0
3	637	50.095	0
3	649	51.095	0
3	661	52.095	0
3	673	53.095	0
3	685	54.095	0
3	697	55.095	0
3	709	56.095	0
3	721	57.095	0
3	733	58.095	0
3	745	59.095	0
3	757	60.095	0
3	769	61.095	0
3	781	62.095	0
3	793	63.095	0
3	805	64.095	0
3	817	65.095	0
3	829	66.095	0
3	841	67.095	0
3	853	68.095	0
3	865	69.095	0
3	877	70.095	0
3	889	71.095	0
3	901	72.095	0
3	913	73.095	0
3	925	74.095	0
3	937	75.095	0
3	949	76.095	0
3	961	77.095	0
3	973	78.095	0
3	991	79.095	0
3	996	79.095	0
3	1008	80.095	0
3	1020	81.095	0
3	1032	82.095	0
3	1044	83.095	0
3	1056	84.095	0
3	1068	85.095	0
3	1080	86.095	0
3	1092	87.095	0
3	1104	88.095	0
3	1116	89.095	0
3	1128	90.095	0
3	1140	91.095	0
3	1152	92.095	0
3	1182	93.095	0
3	1187	93.095	0
3	1192	93.095	0
3	1197	93.095	0
3	1209	94.095	0
3	1221	95.095	0
3	1233	96.095	0
3	1245	97.095	0
3	1257	98.095	0
3	1269	99.095	0
3	1281	100.095	0
3	1299	101.095	0
3	1304	101.095	0
3	1316	102.095	0
3	1328	103.095	0
3	1340	104.095	0
3	1352	105.095	0
3	1364	106.095	0
3	1376	107.095	0
3	1388	108.095	0
3	1400	109.095	0
3	1418	110.095	0
3	1423	110.095	0
3	1435	111.095	0
3	1447	112.095	0
3	1459	113.095	0
3	1471	114.095	0
3	1483	115.095	0
3	1501	116.095	0
3	1506	116.095	0
3	1518	117.095	0
3	1530	118.095	0
3	1542	119.095	0
3	1554	120.095	0
3	1566	121.095	0
3	1578	122.095	0
3	1590	123.095	0
3	1602	124.095	0
3	1614	125.095	0
3	1626	126.095	0
3	1638	127.095	0
3	1650	128.095	0
3	1662	129.095	0
3	1674	130.095	0
3	1686	131.095	0
3	1698	132.095	0
3	1710	133.095	0
3	1722	134.095	0
3	1734	135.095	0
3	1746	136.095	0
3	1758	137.095	0
3	1770	138.095	0
3	1782	139.095	0
3	1794	140.095	0
3	1806	141.095	0
3	1818	142.095	0
3	1830	143.095	0
3	1842	144.095	0
3	1854	145.095	0
3	1866	146.095	0
3	1878	147.095	0
3	1890	148.095	0
3	1902	149.095	0
3	1914	150.095	0
3	1926	151.095	0
3	1938	152.095	0
3	1950	153.095	0
3	1962	154.095	0
3	1974	155.095	0
3	1986	156.095	0
3	1998	157.095	0
3	2010	158.095	0
3	2022	159.095	0
3	2034	160.095	0
3	2046	161.095	0
3	2058	162.095	0
3	2070	163.095	0
3	2082	164.095	0
3	2094	165.095	0
3	2106	166.095	0
3	2118	167.095	0
3	2130	168.095	0
3	2142	169.095	0
3	2154	170.095	0
3	2166	171.095	0
3	2178	172.095	0
3	2190	173.095	0
3	2202	174.095	0
3	2214	175.095	0
3	2226	176.095	0
3	2238	177.095	0
3	2250	178.095	0
3	2268	179.095	0
3	2273	179.095	0
3	2285	180.095	0
3	2297	181.095	0
3	2309	182.095	0
3	2321	183.095	0
3	2333	184.095	0
3	2345	185.095	0
3	2357	186.095	0
3	2369	187.095	0
3	2381	188.095	0
3	2393	189.095	0
3	2405	190.095	0
3	2417	191.095	0
3	2429	192.095	0
3	2459	193.095	0
3	2464	193.095	0
3	2469	193.095	0
3	2474	193.095	0
3	2486	194.095	0
3	2498	195.095	0
3	2510	196.095	0
3	2522	197.095	0
3	2534	198.095	0
3	2546	199.095	0
3	2558	200.095	0
3	2576	201.095	0
3	2581	201.095	0
3	2593	202.095	0
3	2605	203.095	0
3	2617	204.095	0
3	2629	205.095	0
3	2641	206.095	0
3	2653	207.095	0
3	2665	208.095	0
3	2677	209.095	0
3	2695	210.095	0
3	2700	210.095	0
3	2712	211.095	0
3	2724	212.095	0
3	2736	213.095	0
3	2748	214.095	0
3	2760	215.095	0
3	2778	216.095	0
3	2783	216.095	0
3	2795	217.095	0
3	2807	218.095	0
3	2819	219.095	0
3	2831	220.095	0
3	2843	221.095	0
3	2855	222.095	0
3	2867	223.095	0
3	2879	224.095	0
3	2891	225.095	0
3	2903	226.095	0
3	2915	227.095	0
3	2927	228.095	0
3	2939	229.095	0
3	2951	230.095	0
3	2963	231.095	0
3	2975	232.095	0
3	2987	233.095	0
3	2999	234.095	0
3	3011	235.095	0
3	3023	236.095	0
3	3035	237.095	0
3	3047	238.095	0
3	3059	239.095	0
3	3071	240.095	0
3	3083	241.095	0
3	3095	242.095	0
3	3107	243.095	0
3	3119	244.095	0
3	3131	245.095	0
3	3143	246.095	0
3	3155	247.095	0
3	3167	248.095	0
3	3179	249.095	0
3	3191	250.095	0
3	3203	251.095	0
3	3215	252.095	0
3	3227	253.095	0
3	3239	254.095	0
3	3251	255.095	0
3	3263	256.095	0
3	3275	257.095	0
3	3287	258.095	0
3	3299	259.095	0
3	3311	260.095	0
3	3323	261.095	0
3	3335	262.095	0
3	3347	263.095	0
3	3359	264.095	0
3	3371	265.095	0
3	3383	266.095	0
3	3395	267.095	0
3	3407	268.095	0
3	3419	269.095	0
3	3431	270.095	0
3	3443	271.095	0
3	3455	272.095	0
3	3467	273.095	0
3	3479	274.095	0
3	3491	275.095	0
3	3503	276.095	0
3	3515	277.095	0
3	3527	278.095	0
3	3545	279.095	0
3	3550	279.095	0
3	3562	280.095	0
3	3574	281.095	0
3	3586	282.095	0
3	3598	283.095	0
3	3610	284.095	0
3	3622	285.095	0
3	3634	286.095	0
3	3646	287.095	0
3	3658	288.095	0
3	3670	289.095	0
3	3682	290.095	0
3	3694	291.095	0
3	3706	292.095	0
3	3736	293.095	0
3	3741	293.095	0
3	3746	293.095	0
3	3751	293.095	0
3	3763	294.095	0
3	3775	295.095	0
3	3787	296.095	0
3	3799	297.095	0
3	3811	298.095	0
3	3823	299.095	0
4	23	1.095	0
4	28	1.095	0
4	40	2.095	0
4	52	3.095	0
4	64	4.095	0
4	76	5.095	0
4	88	6.095	0
4	100	7.095	0
4	112	8.095	0
4	124	9.095	0
4	142	10.095	0
4	147	10.095	0
4	159	11.095	0
4	171	12.095	0
4	183	13.095	0
4	195	14.095	0
4	207	15.095	0
4	225	16.095	0
4	230	16.095	0
4	242	17.095	0
4	254	18.095	0
4	266	19.095	0
4	278	20.095	0
4	290	21.095	0
4	302	22.095	0
4	314	23.095	0
4	326	24.095	0
4	338	25.095	0
4	350	26.095	0
4	362	27.095	0
4	374	28.095	0
4	386	29.095	0
4	398	30.095	0
4	410	31.095	0
4	422	32.095	0
4	434	33.095	0
4	446	34.095	0
4	458	35.095	0
4	470	36.095	0
4	482	37.095	0
4	494	38.095	0
4	506	39.095	0
4	518	40.095	0
4	530	41.095	0
4	542	42.095	0
4	554	43.095	0
4	566	44.095	0
4	578	45.095	0
4	590	46.095	0
4	602	47.095	0
4	614	48.095	0
4	626	49.095	0
4	638	50.095	0
4	650	51.095	0
4	662	52.095	0
4	674	53.095	0
4	686	54.095	0
4	698	55.095	0
4	710	56.095	0
4	722	57.095	0
4	734	58.095	0
4	746	59.095	0
4	758	60.095	0
4	770	61.095	0
4	782	62.095	0
4	794	63.095	0
4	806	64.095	0
4	818	65.095	0
4	830	66.095	0
4	842	67.095	0
4	854	68.095	0
4	866	69.095	0
4	878	70.095	0
4	890	71.095	0
4	902	72.095	0
4	914	73.095	0
4	926	74.095	0
4	938	75.095	0
4	950	76.095	0
4	962	77.095	0
4	974	78.095	0
4	992	79.095	0
4	997	79.095	0
4	1009	80.095	0
4	1021	81.095	0
4	1033	82.095	0
4	1045	83.095	0
4	1057	84.095	0
4	1069	85.095	0
4	1081	86.095	0
4	1093	87.095	0
4	1105	88.095	0
4	1117	89.095	0
4	1129	90.095	0
4	1141	91.095	0
4	1153	92.095	0
4	1183	93.095	0
4	1188	93.095	0
4	1193	93.095	0
4	1198	93.095	0
4	1210	94.095	0
4	1222	95.095	0
4	1234	96.095	0
4	1246	97.095	0
4	1258	98.095	0
4	1270	99.095	0
4	1282	100.095	0
4	1300	101.095	0
4	1305	101.095	0
4	1317	102.095	0
4	1329	103.095	0
4	1341	104.095	0
4	1353	105.095	0
4	1365	106.095	0
4	1377	107.095	0
4	1389	108.095	0
4	1401	109.095	0
4	1419	110.095	0
4	1424	110.095	0
4	1436	111.095	0
4	1448	112.095	0
4	1460	113.095	0
4	1472	114.095	0
4	1484	115.095	0
4	1502	116.095	0
4	1507	116.095	0
4	1519	117.095	0
4	1531	118.095	0
4	1543	119.095	0
4	1555	120.095	0
4	1567	121.095	0
4	1579	122.095	0
4	1591	123.095	0
4	1603	124.095	0
4	1615	125.095	0
4	1627	126.095	0
4	1639	127.095	0
4	1651	128.095	0
4	1663	129.095	0
4	1675	130.095	0
4	1687	131.095	0
4	1699	132.095	0
4	1711	133.095	0
4	1723	134.095	0
4	1735	135.095	0
4	1747	136.095	0
4	1759	137.095	0
4	1771	138.095	0
4	1783	139.095	0
4	1795	140.095	0
4	1807	141.095	0
4	1819	142.095	0
4	1831	143.095	0
4	1843	144.095	0
4	1855	145.095	0
4	1867	146.095	0
4	1879	147.095	0
4	1891	148.095	0
4	1903	149.095	0
4	1915	150.095	0
4	1927	151.095	0
4	1939	152.095	0
4	1951	153.095	0
4	1963	154.095	0
4	1975	155.095	0
4	1987	156.095	0
4	1999	157.095	0
4	2011	158.095	0
4	2023	159.095	0
4	2035	160.095	0
4	2047	161.095	0
4	2059	162.095	0
4	2071	163.095	0
4	2083	164.095	0
4	2095	165.095	0
4	2107	166.095	0
4	2119	167.095	0
4	2131	168.095	0
4	2143	169.095	0
4	2155	170.095	0
4	2167	171.095	0
4	2179	172.095	0
4	2191	173.095	0
4	2203	174.095	0
4	2215	175.095	0
4	2227	176.095	0
4	2239	177.095	0
4	2251	178.095	0
4	2269	179.095	0
4	2274	179.095	0
4	2286	180.095	0
4	2298	181.095	0
4	2310	182.095	0
4	2322	183.095	0
4	2334	184.095	0
4	2346	185.095	0
4	2358	186.095	0
4	2370	187.095	0
4	2382	188.095	0
4	2394	189.095	0
4	2406	190.095	0
4	2418	191.095	0
4	2430	192.095	0
4	2460	193.095	0
4	2465	193.095	0
4	2470	193.095	0
4	2475	193.095	0
4	2487	194.095	0
4	2499	195.095	0
4	2511	196.095	0
4	2523	197.095	0
4	2535	198.095	0
4	2547	199.095	0
4	2559	200.095	0
4	2577	201.095	0
4	2582	201.095	0
4	2594	202.095	0
4	2606	203.095	0
4	2618	204.095	0
4	2630	205.095	0
4	2642	206.095	0
4	2654	207.095	0
4	2666	208.095	0
4	2678	209.095	0
4	2696	210.095	0
4	2701	210.095	0
4	2713	211.095	0
4	2725	212.095	0
4	2737	213.095	0
4	2749	214.095	0
4	2761	215.095	0
4	2779	216.095	0
4	2784	216.095	0
4	2796	217.095	0
4	2808	218.095	0
4	2820	219.095	0
4	2832	220.095	0
4	2844	221.095	0
4	2856	222.095	0
4	2868	223.095	0
4	2880	224.095	0
4	2892	225.095	0
4	2904	226.095	0
4	2916	227.095	0
4	2928	228.095	0
4	2940	229.095	0
4	2952	230.095	0
4	2964	231.095	0
4	2976	232.095	0
4	2988	233.095	0
4	3000	234.095	0
4	3012	235.095	0
4	3024	236.095	0
4	3036	237.095	0
4	3048	238.095	0
4	3060	239.095	0
4	3072	240.095	0
4	3084	241.095	0
4	3096	242.095	0
4	3108	243.095	0
4	3120	244.095	0
4	3132	245.095	0
4	3144	246.095	0
4	3156	247.095	0
4	3168	248.095	0
4	3180	249.095	0
4	3192	250.095	0
4	3204	251.095	0
4	3216	252.095	0
4	3228	253.095	0
4	3240	254.095	0
4	3252	255.095	0
4	3264	256.095	0
4	3276	257.095	0
4	3288	258.095	0
4	3300	259.095	0
4	3312	260.095	0
4	3324	261.095	0
4	3336	262.095	0
4	3348	263.095	0
4	3360	264.095	0
4	3372	265.095	0
4	3384	266.095	0
4	3396	267.095	0
4	3408	268.095	0
4	3420	269.095	0
4	3432	270.095	0
4	3444	271.095	0
4	3456	272.095	0
4	3468	273.095	0
4	3480	274.095	0
4	3492	275.095	0
4	3504	276.095	0
4	3516	277.095	0
4	3528	278.095	0
4	3546	279.095	0
4	3551	279.095	0
4	3563	280.095	0
4	3575	281.095	0
4	3587	282.095	0
4	3599	283.095	0
4	3611	284.095	0
4	3623	285.095	0
4	3635	286.095	0
4	3647	287.095	0
4	3659	288.095	0
4	3671	289.095	0
4	3683	290.095	0
4	3695	291.095	0
4	3707	292.095	0
4	3737	293.095	0
4	3742	293.095	0
4	3747	293.095	0
4	3752	293.095	0
4	3764	294.095	0
4	3776	295.095	0
4	3788	296.095	0
4	3800	297.095	0
4	3812	298.095	0
4	3824	299.095	0

